<?xml version="1.0" encoding="UTF-8"?>

<!-- generated on 2024-10-24 16:51:51 by Eclipse SUMO GUI Version 1.21.0
<sumoConfiguration xmlns:xsi="http://www.w3.org/2001/XMLSchema-instance" xsi:noNamespaceSchemaLocation="http://sumo.dlr.de/xsd/sumoConfiguration.xsd">

    <input>
        <net-file value="C:\Users\sadeg\Desktop\hello\data\hello.net.xml"/>
        <route-files value="C:\Users\sadeg\Desktop\hello\data\hello.rou.xml"/>
    </input>

    <output>
        <fcd-output value="C:/Users/sadeg/Desktop/hello/data/out/hello_fcd.xml"/>
    </output>

    <time>
        <begin value="0"/>
        <end value="10000"/>
    </time>

    <gui_only>
        <gui-settings-file value="C:\Users\sadeg\Desktop\hello\data\hello.settings.xml"/>
    </gui_only>

</sumoConfiguration>
-->

<fcd-export xmlns:xsi="http://www.w3.org/2001/XMLSchema-instance" xsi:noNamespaceSchemaLocation="http://sumo.dlr.de/xsd/fcd_file.xsd">
    <timestep time="0.00"/>
    <timestep time="1.00">
        <vehicle id="veh0" x="5.10" y="-1.65" angle="90.00" type="Car" speed="0.00" pos="5.10" lane="1to2_0" slope="0.00"/>
    </timestep>
    <timestep time="2.00">
        <vehicle id="veh0" x="6.10" y="-1.65" angle="90.00" type="Car" speed="1.00" pos="6.10" lane="1to2_0" slope="0.00"/>
    </timestep>
    <timestep time="3.00">
        <vehicle id="veh0" x="8.10" y="-1.65" angle="90.00" type="Car" speed="2.00" pos="8.10" lane="1to2_0" slope="0.00"/>
    </timestep>
    <timestep time="4.00">
        <vehicle id="veh0" x="11.10" y="-1.65" angle="90.00" type="Car" speed="3.00" pos="11.10" lane="1to2_0" slope="0.00"/>
    </timestep>
    <timestep time="5.00">
        <vehicle id="veh0" x="15.10" y="-1.65" angle="90.00" type="Car" speed="4.00" pos="15.10" lane="1to2_0" slope="0.00"/>
    </timestep>
    <timestep time="6.00">
        <vehicle id="veh0" x="20.10" y="-1.65" angle="90.00" type="Car" speed="5.00" pos="20.10" lane="1to2_0" slope="0.00"/>
    </timestep>
    <timestep time="7.00">
        <vehicle id="veh0" x="26.10" y="-1.65" angle="90.00" type="Car" speed="6.00" pos="26.10" lane="1to2_0" slope="0.00"/>
    </timestep>
    <timestep time="8.00">
        <vehicle id="veh0" x="33.10" y="-1.65" angle="90.00" type="Car" speed="7.00" pos="33.10" lane="1to2_0" slope="0.00"/>
    </timestep>
    <timestep time="9.00">
        <vehicle id="veh0" x="41.10" y="-1.65" angle="90.00" type="Car" speed="8.00" pos="41.10" lane="1to2_0" slope="0.00"/>
    </timestep>
    <timestep time="10.00">
        <vehicle id="veh0" x="50.10" y="-1.65" angle="90.00" type="Car" speed="9.00" pos="50.10" lane="1to2_0" slope="0.00"/>
    </timestep>
    <timestep time="11.00">
        <vehicle id="veh0" x="60.10" y="-1.65" angle="90.00" type="Car" speed="10.00" pos="60.10" lane="1to2_0" slope="0.00"/>
    </timestep>
    <timestep time="12.00">
        <vehicle id="veh0" x="71.10" y="-1.65" angle="90.00" type="Car" speed="11.00" pos="71.10" lane="1to2_0" slope="0.00"/>
    </timestep>
    <timestep time="13.00">
        <vehicle id="veh0" x="83.10" y="-1.65" angle="90.00" type="Car" speed="12.00" pos="83.10" lane="1to2_0" slope="0.00"/>
    </timestep>
    <timestep time="14.00">
        <vehicle id="veh0" x="96.10" y="-1.65" angle="90.00" type="Car" speed="13.00" pos="96.10" lane="1to2_0" slope="0.00"/>
    </timestep>
    <timestep time="15.00">
        <vehicle id="veh0" x="110.10" y="-1.65" angle="90.00" type="Car" speed="14.00" pos="110.10" lane="1to2_0" slope="0.00"/>
    </timestep>
    <timestep time="16.00">
        <vehicle id="veh0" x="124.83" y="-1.65" angle="90.00" type="Car" speed="14.73" pos="124.83" lane="1to2_0" slope="0.00"/>
    </timestep>
    <timestep time="17.00">
        <vehicle id="veh0" x="139.57" y="-1.65" angle="90.00" type="Car" speed="14.73" pos="139.57" lane="1to2_0" slope="0.00"/>
    </timestep>
    <timestep time="18.00">
        <vehicle id="veh0" x="154.30" y="-1.65" angle="90.00" type="Car" speed="14.73" pos="154.30" lane="1to2_0" slope="0.00"/>
    </timestep>
    <timestep time="19.00">
        <vehicle id="veh0" x="169.04" y="-1.65" angle="90.00" type="Car" speed="14.73" pos="169.04" lane="1to2_0" slope="0.00"/>
    </timestep>
    <timestep time="20.00">
        <vehicle id="veh0" x="183.77" y="-1.65" angle="90.00" type="Car" speed="14.73" pos="183.77" lane="1to2_0" slope="0.00"/>
    </timestep>
    <timestep time="21.00">
        <vehicle id="veh0" x="198.50" y="-1.65" angle="90.00" type="Car" speed="14.73" pos="198.50" lane="1to2_0" slope="0.00"/>
    </timestep>
    <timestep time="22.00">
        <vehicle id="veh0" x="213.24" y="-1.65" angle="90.00" type="Car" speed="14.73" pos="213.24" lane="1to2_0" slope="0.00"/>
    </timestep>
    <timestep time="23.00">
        <vehicle id="veh0" x="227.97" y="-1.65" angle="90.00" type="Car" speed="14.73" pos="227.97" lane="1to2_0" slope="0.00"/>
    </timestep>
</fcd-export>